LAMMPS data file

2000 atoms
5 atom types

0.0 34 xlo xhi
0.0 34 ylo yhi
0.0 34 zlo zhi

Masses

1 26.982
2 24.305
3 180.95
4 183.84
5 0

Atoms

1 3 0 0 0
2 3 0 0 3.4
3 3 0 0 6.8
4 3 0 0 10.2
5 3 0 0 13.6
6 3 0 0 17
7 3 0 0 20.4
8 3 0 0 23.8
9 3 0 0 27.2
10 3 0 0 30.6
11 3 0 3.4 0
12 3 0 3.4 3.4
13 3 0 3.4 6.8
14 3 0 3.4 10.2
15 3 0 3.4 13.6
16 3 0 3.4 17
17 3 0 3.4 20.4
18 3 0 3.4 23.8
19 3 0 3.4 27.2
20 3 0 3.4 30.6
21 3 0 6.8 0
22 3 0 6.8 3.4
23 3 0 6.8 6.8
24 3 0 6.8 10.2
25 3 0 6.8 13.6
26 3 0 6.8 17
27 3 0 6.8 20.4
28 3 0 6.8 23.8
29 3 0 6.8 27.2
30 3 0 6.8 30.6
31 3 0 10.2 0
32 3 0 10.2 3.4
33 3 0 10.2 6.8
34 3 0 10.2 10.2
35 3 0 10.2 13.6
36 3 0 10.2 17
37 3 0 10.2 20.4
38 3 0 10.2 23.8
39 3 0 10.2 27.2
40 3 0 10.2 30.6
41 3 0 13.6 0
42 3 0 13.6 3.4
43 3 0 13.6 6.8
44 3 0 13.6 10.2
45 3 0 13.6 13.6
46 3 0 13.6 17
47 3 0 13.6 20.4
48 3 0 13.6 23.8
49 3 0 13.6 27.2
50 3 0 13.6 30.6
51 3 0 17 0
52 3 0 17 3.4
53 3 0 17 6.8
54 3 0 17 10.2
55 3 0 17 13.6
56 3 0 17 17
57 3 0 17 20.4
58 3 0 17 23.8
59 3 0 17 27.2
60 3 0 17 30.6
61 3 0 20.4 0
62 3 0 20.4 3.4
63 3 0 20.4 6.8
64 3 0 20.4 10.2
65 3 0 20.4 13.6
66 3 0 20.4 17
67 3 0 20.4 20.4
68 3 0 20.4 23.8
69 3 0 20.4 27.2
70 3 0 20.4 30.6
71 3 0 23.8 0
72 3 0 23.8 3.4
73 3 0 23.8 6.8
74 3 0 23.8 10.2
75 3 0 23.8 13.6
76 3 0 23.8 17
77 3 0 23.8 20.4
78 3 0 23.8 23.8
79 3 0 23.8 27.2
80 3 0 23.8 30.6
81 3 0 27.2 0
82 3 0 27.2 3.4
83 3 0 27.2 6.8
84 3 0 27.2 10.2
85 3 0 27.2 13.6
86 3 0 27.2 17
87 3 0 27.2 20.4
88 3 0 27.2 23.8
89 3 0 27.2 27.2
90 3 0 27.2 30.6
91 3 0 30.6 0
92 3 0 30.6 3.4
93 3 0 30.6 6.8
94 3 0 30.6 10.2
95 3 0 30.6 13.6
96 3 0 30.6 17
97 3 0 30.6 20.4
98 3 0 30.6 23.8
99 3 0 30.6 27.2
100 3 0 30.6 30.6
101 3 1.7 1.7 1.7
102 3 1.7 1.7 5.1
103 3 1.7 1.7 8.5
104 3 1.7 1.7 11.9
105 3 1.7 1.7 15.3
106 3 1.7 1.7 18.7
107 3 1.7 1.7 22.1
108 3 1.7 1.7 25.5
109 3 1.7 1.7 28.9
110 3 1.7 1.7 32.3
111 3 1.7 5.1 1.7
112 3 1.7 5.1 5.1
113 3 1.7 5.1 8.5
114 3 1.7 5.1 11.9
115 3 1.7 5.1 15.3
116 3 1.7 5.1 18.7
117 3 1.7 5.1 22.1
118 3 1.7 5.1 25.5
119 3 1.7 5.1 28.9
120 3 1.7 5.1 32.3
121 3 1.7 8.5 1.7
122 3 1.7 8.5 5.1
123 3 1.7 8.5 8.5
124 3 1.7 8.5 11.9
125 3 1.7 8.5 15.3
126 3 1.7 8.5 18.7
127 3 1.7 8.5 22.1
128 3 1.7 8.5 25.5
129 3 1.7 8.5 28.9
130 3 1.7 8.5 32.3
131 3 1.7 11.9 1.7
132 3 1.7 11.9 5.1
133 3 1.7 11.9 8.5
134 3 1.7 11.9 11.9
135 3 1.7 11.9 15.3
136 3 1.7 11.9 18.7
137 3 1.7 11.9 22.1
138 3 1.7 11.9 25.5
139 3 1.7 11.9 28.9
140 3 1.7 11.9 32.3
141 3 1.7 15.3 1.7
142 3 1.7 15.3 5.1
143 3 1.7 15.3 8.5
144 3 1.7 15.3 11.9
145 3 1.7 15.3 15.3
146 3 1.7 15.3 18.7
147 3 1.7 15.3 22.1
148 3 1.7 15.3 25.5
149 3 1.7 15.3 28.9
150 3 1.7 15.3 32.3
151 3 1.7 18.7 1.7
152 3 1.7 18.7 5.1
153 3 1.7 18.7 8.5
154 3 1.7 18.7 11.9
155 3 1.7 18.7 15.3
156 3 1.7 18.7 18.7
157 3 1.7 18.7 22.1
158 3 1.7 18.7 25.5
159 3 1.7 18.7 28.9
160 3 1.7 18.7 32.3
161 3 1.7 22.1 1.7
162 3 1.7 22.1 5.1
163 3 1.7 22.1 8.5
164 3 1.7 22.1 11.9
165 3 1.7 22.1 15.3
166 3 1.7 22.1 18.7
167 3 1.7 22.1 22.1
168 3 1.7 22.1 25.5
169 3 1.7 22.1 28.9
170 3 1.7 22.1 32.3
171 3 1.7 25.5 1.7
172 3 1.7 25.5 5.1
173 3 1.7 25.5 8.5
174 3 1.7 25.5 11.9
175 3 1.7 25.5 15.3
176 3 1.7 25.5 18.7
177 3 1.7 25.5 22.1
178 3 1.7 25.5 25.5
179 3 1.7 25.5 28.9
180 3 1.7 25.5 32.3
181 3 1.7 28.9 1.7
182 3 1.7 28.9 5.1
183 3 1.7 28.9 8.5
184 3 1.7 28.9 11.9
185 3 1.7 28.9 15.3
186 3 1.7 28.9 18.7
187 3 1.7 28.9 22.1
188 3 1.7 28.9 25.5
189 3 1.7 28.9 28.9
190 3 1.7 28.9 32.3
191 3 1.7 32.3 1.7
192 3 1.7 32.3 5.1
193 3 1.7 32.3 8.5
194 3 1.7 32.3 11.9
195 3 1.7 32.3 15.3
196 3 1.7 32.3 18.7
197 3 1.7 32.3 22.1
198 3 1.7 32.3 25.5
199 3 1.7 32.3 28.9
200 3 1.7 32.3 32.3
201 3 3.4 0 0
202 3 3.4 0 3.4
203 3 3.4 0 6.8
204 3 3.4 0 10.2
205 3 3.4 0 13.6
206 3 3.4 0 17
207 3 3.4 0 20.4
208 3 3.4 0 23.8
209 3 3.4 0 27.2
210 3 3.4 0 30.6
211 3 3.4 3.4 0
212 3 3.4 3.4 3.4
213 3 3.4 3.4 6.8
214 3 3.4 3.4 10.2
215 3 3.4 3.4 13.6
216 3 3.4 3.4 17
217 3 3.4 3.4 20.4
218 3 3.4 3.4 23.8
219 3 3.4 3.4 27.2
220 3 3.4 3.4 30.6
221 3 3.4 6.8 0
222 3 3.4 6.8 3.4
223 3 3.4 6.8 6.8
224 3 3.4 6.8 10.2
225 3 3.4 6.8 13.6
226 3 3.4 6.8 17
227 3 3.4 6.8 20.4
228 3 3.4 6.8 23.8
229 3 3.4 6.8 27.2
230 3 3.4 6.8 30.6
231 3 3.4 10.2 0
232 3 3.4 10.2 3.4
233 3 3.4 10.2 6.8
234 3 3.4 10.2 10.2
235 3 3.4 10.2 13.6
236 3 3.4 10.2 17
237 3 3.4 10.2 20.4
238 3 3.4 10.2 23.8
239 3 3.4 10.2 27.2
240 3 3.4 10.2 30.6
241 3 3.4 13.6 0
242 3 3.4 13.6 3.4
243 3 3.4 13.6 6.8
244 3 3.4 13.6 10.2
245 3 3.4 13.6 13.6
246 3 3.4 13.6 17
247 3 3.4 13.6 20.4
248 3 3.4 13.6 23.8
249 3 3.4 13.6 27.2
250 3 3.4 13.6 30.6
251 3 3.4 17 0
252 3 3.4 17 3.4
253 3 3.4 17 6.8
254 3 3.4 17 10.2
255 3 3.4 17 13.6
256 3 3.4 17 17
257 3 3.4 17 20.4
258 3 3.4 17 23.8
259 3 3.4 17 27.2
260 3 3.4 17 30.6
261 3 3.4 20.4 0
262 3 3.4 20.4 3.4
263 3 3.4 20.4 6.8
264 3 3.4 20.4 10.2
265 3 3.4 20.4 13.6
266 3 3.4 20.4 17
267 3 3.4 20.4 20.4
268 3 3.4 20.4 23.8
269 3 3.4 20.4 27.2
270 3 3.4 20.4 30.6
271 3 3.4 23.8 0
272 3 3.4 23.8 3.4
273 3 3.4 23.8 6.8
274 3 3.4 23.8 10.2
275 3 3.4 23.8 13.6
276 3 3.4 23.8 17
277 3 3.4 23.8 20.4
278 3 3.4 23.8 23.8
279 3 3.4 23.8 27.2
280 3 3.4 23.8 30.6
281 3 3.4 27.2 0
282 3 3.4 27.2 3.4
283 3 3.4 27.2 6.8
284 3 3.4 27.2 10.2
285 3 3.4 27.2 13.6
286 3 3.4 27.2 17
287 3 3.4 27.2 20.4
288 3 3.4 27.2 23.8
289 3 3.4 27.2 27.2
290 3 3.4 27.2 30.6
291 3 3.4 30.6 0
292 3 3.4 30.6 3.4
293 3 3.4 30.6 6.8
294 3 3.4 30.6 10.2
295 3 3.4 30.6 13.6
296 3 3.4 30.6 17
297 3 3.4 30.6 20.4
298 3 3.4 30.6 23.8
299 3 3.4 30.6 27.2
300 3 3.4 30.6 30.6
301 3 5.1 1.7 1.7
302 3 5.1 1.7 5.1
303 3 5.1 1.7 8.5
304 3 5.1 1.7 11.9
305 3 5.1 1.7 15.3
306 3 5.1 1.7 18.7
307 3 5.1 1.7 22.1
308 3 5.1 1.7 25.5
309 3 5.1 1.7 28.9
310 3 5.1 1.7 32.3
311 3 5.1 5.1 1.7
312 3 5.1 5.1 5.1
313 3 5.1 5.1 8.5
314 3 5.1 5.1 11.9
315 3 5.1 5.1 15.3
316 3 5.1 5.1 18.7
317 3 5.1 5.1 22.1
318 3 5.1 5.1 25.5
319 3 5.1 5.1 28.9
320 3 5.1 5.1 32.3
321 3 5.1 8.5 1.7
322 3 5.1 8.5 5.1
323 3 5.1 8.5 8.5
324 3 5.1 8.5 11.9
325 3 5.1 8.5 15.3
326 3 5.1 8.5 18.7
327 3 5.1 8.5 22.1
328 3 5.1 8.5 25.5
329 3 5.1 8.5 28.9
330 3 5.1 8.5 32.3
331 3 5.1 11.9 1.7
332 3 5.1 11.9 5.1
333 3 5.1 11.9 8.5
334 3 5.1 11.9 11.9
335 3 5.1 11.9 15.3
336 3 5.1 11.9 18.7
337 3 5.1 11.9 22.1
338 3 5.1 11.9 25.5
339 3 5.1 11.9 28.9
340 3 5.1 11.9 32.3
341 3 5.1 15.3 1.7
342 3 5.1 15.3 5.1
343 3 5.1 15.3 8.5
344 3 5.1 15.3 11.9
345 3 5.1 15.3 15.3
346 3 5.1 15.3 18.7
347 3 5.1 15.3 22.1
348 3 5.1 15.3 25.5
349 3 5.1 15.3 28.9
350 3 5.1 15.3 32.3
351 3 5.1 18.7 1.7
352 3 5.1 18.7 5.1
353 3 5.1 18.7 8.5
354 3 5.1 18.7 11.9
355 3 5.1 18.7 15.3
356 3 5.1 18.7 18.7
357 3 5.1 18.7 22.1
358 3 5.1 18.7 25.5
359 3 5.1 18.7 28.9
360 3 5.1 18.7 32.3
361 3 5.1 22.1 1.7
362 3 5.1 22.1 5.1
363 3 5.1 22.1 8.5
364 3 5.1 22.1 11.9
365 3 5.1 22.1 15.3
366 3 5.1 22.1 18.7
367 3 5.1 22.1 22.1
368 3 5.1 22.1 25.5
369 3 5.1 22.1 28.9
370 3 5.1 22.1 32.3
371 3 5.1 25.5 1.7
372 3 5.1 25.5 5.1
373 3 5.1 25.5 8.5
374 3 5.1 25.5 11.9
375 3 5.1 25.5 15.3
376 3 5.1 25.5 18.7
377 3 5.1 25.5 22.1
378 3 5.1 25.5 25.5
379 3 5.1 25.5 28.9
380 3 5.1 25.5 32.3
381 3 5.1 28.9 1.7
382 3 5.1 28.9 5.1
383 3 5.1 28.9 8.5
384 3 5.1 28.9 11.9
385 3 5.1 28.9 15.3
386 3 5.1 28.9 18.7
387 3 5.1 28.9 22.1
388 3 5.1 28.9 25.5
389 3 5.1 28.9 28.9
390 3 5.1 28.9 32.3
391 3 5.1 32.3 1.7
392 3 5.1 32.3 5.1
393 3 5.1 32.3 8.5
394 3 5.1 32.3 11.9
395 3 5.1 32.3 15.3
396 3 5.1 32.3 18.7
397 3 5.1 32.3 22.1
398 3 5.1 32.3 25.5
399 3 5.1 32.3 28.9
400 3 5.1 32.3 32.3
401 3 6.8 0 0
402 3 6.8 0 3.4
403 3 6.8 0 6.8
404 3 6.8 0 10.2
405 3 6.8 0 13.6
406 3 6.8 0 17
407 3 6.8 0 20.4
408 3 6.8 0 23.8
409 3 6.8 0 27.2
410 3 6.8 0 30.6
411 3 6.8 3.4 0
412 3 6.8 3.4 3.4
413 3 6.8 3.4 6.8
414 3 6.8 3.4 10.2
415 3 6.8 3.4 13.6
416 3 6.8 3.4 17
417 3 6.8 3.4 20.4
418 3 6.8 3.4 23.8
419 3 6.8 3.4 27.2
420 3 6.8 3.4 30.6
421 3 6.8 6.8 0
422 3 6.8 6.8 3.4
423 3 6.8 6.8 6.8
424 3 6.8 6.8 10.2
425 3 6.8 6.8 13.6
426 3 6.8 6.8 17
427 3 6.8 6.8 20.4
428 3 6.8 6.8 23.8
429 3 6.8 6.8 27.2
430 3 6.8 6.8 30.6
431 3 6.8 10.2 0
432 3 6.8 10.2 3.4
433 3 6.8 10.2 6.8
434 3 6.8 10.2 10.2
435 3 6.8 10.2 13.6
436 3 6.8 10.2 17
437 3 6.8 10.2 20.4
438 3 6.8 10.2 23.8
439 3 6.8 10.2 27.2
440 3 6.8 10.2 30.6
441 3 6.8 13.6 0
442 3 6.8 13.6 3.4
443 3 6.8 13.6 6.8
444 3 6.8 13.6 10.2
445 3 6.8 13.6 13.6
446 3 6.8 13.6 17
447 3 6.8 13.6 20.4
448 3 6.8 13.6 23.8
449 3 6.8 13.6 27.2
450 3 6.8 13.6 30.6
451 3 6.8 17 0
452 3 6.8 17 3.4
453 3 6.8 17 6.8
454 3 6.8 17 10.2
455 3 6.8 17 13.6
456 3 6.8 17 17
457 3 6.8 17 20.4
458 3 6.8 17 23.8
459 3 6.8 17 27.2
460 3 6.8 17 30.6
461 3 6.8 20.4 0
462 3 6.8 20.4 3.4
463 3 6.8 20.4 6.8
464 3 6.8 20.4 10.2
465 3 6.8 20.4 13.6
466 3 6.8 20.4 17
467 3 6.8 20.4 20.4
468 3 6.8 20.4 23.8
469 3 6.8 20.4 27.2
470 3 6.8 20.4 30.6
471 3 6.8 23.8 0
472 3 6.8 23.8 3.4
473 3 6.8 23.8 6.8
474 3 6.8 23.8 10.2
475 3 6.8 23.8 13.6
476 3 6.8 23.8 17
477 3 6.8 23.8 20.4
478 3 6.8 23.8 23.8
479 3 6.8 23.8 27.2
480 3 6.8 23.8 30.6
481 3 6.8 27.2 0
482 3 6.8 27.2 3.4
483 3 6.8 27.2 6.8
484 3 6.8 27.2 10.2
485 3 6.8 27.2 13.6
486 3 6.8 27.2 17
487 3 6.8 27.2 20.4
488 3 6.8 27.2 23.8
489 3 6.8 27.2 27.2
490 3 6.8 27.2 30.6
491 3 6.8 30.6 0
492 3 6.8 30.6 3.4
493 3 6.8 30.6 6.8
494 3 6.8 30.6 10.2
495 3 6.8 30.6 13.6
496 3 6.8 30.6 17
497 3 6.8 30.6 20.4
498 3 6.8 30.6 23.8
499 3 6.8 30.6 27.2
500 3 6.8 30.6 30.6
501 3 8.5 1.7 1.7
502 3 8.5 1.7 5.1
503 3 8.5 1.7 8.5
504 3 8.5 1.7 11.9
505 3 8.5 1.7 15.3
506 3 8.5 1.7 18.7
507 3 8.5 1.7 22.1
508 3 8.5 1.7 25.5
509 3 8.5 1.7 28.9
510 3 8.5 1.7 32.3
511 3 8.5 5.1 1.7
512 3 8.5 5.1 5.1
513 3 8.5 5.1 8.5
514 3 8.5 5.1 11.9
515 3 8.5 5.1 15.3
516 3 8.5 5.1 18.7
517 3 8.5 5.1 22.1
518 3 8.5 5.1 25.5
519 3 8.5 5.1 28.9
520 3 8.5 5.1 32.3
521 3 8.5 8.5 1.7
522 3 8.5 8.5 5.1
523 3 8.5 8.5 8.5
524 3 8.5 8.5 11.9
525 3 8.5 8.5 15.3
526 3 8.5 8.5 18.7
527 3 8.5 8.5 22.1
528 3 8.5 8.5 25.5
529 3 8.5 8.5 28.9
530 3 8.5 8.5 32.3
531 3 8.5 11.9 1.7
532 3 8.5 11.9 5.1
533 3 8.5 11.9 8.5
534 3 8.5 11.9 11.9
535 3 8.5 11.9 15.3
536 3 8.5 11.9 18.7
537 3 8.5 11.9 22.1
538 3 8.5 11.9 25.5
539 3 8.5 11.9 28.9
540 3 8.5 11.9 32.3
541 3 8.5 15.3 1.7
542 3 8.5 15.3 5.1
543 3 8.5 15.3 8.5
544 3 8.5 15.3 11.9
545 3 8.5 15.3 15.3
546 3 8.5 15.3 18.7
547 3 8.5 15.3 22.1
548 3 8.5 15.3 25.5
549 3 8.5 15.3 28.9
550 3 8.5 15.3 32.3
551 3 8.5 18.7 1.7
552 3 8.5 18.7 5.1
553 3 8.5 18.7 8.5
554 3 8.5 18.7 11.9
555 3 8.5 18.7 15.3
556 3 8.5 18.7 18.7
557 3 8.5 18.7 22.1
558 3 8.5 18.7 25.5
559 3 8.5 18.7 28.9
560 3 8.5 18.7 32.3
561 3 8.5 22.1 1.7
562 3 8.5 22.1 5.1
563 3 8.5 22.1 8.5
564 3 8.5 22.1 11.9
565 3 8.5 22.1 15.3
566 3 8.5 22.1 18.7
567 3 8.5 22.1 22.1
568 3 8.5 22.1 25.5
569 3 8.5 22.1 28.9
570 3 8.5 22.1 32.3
571 3 8.5 25.5 1.7
572 3 8.5 25.5 5.1
573 3 8.5 25.5 8.5
574 3 8.5 25.5 11.9
575 3 8.5 25.5 15.3
576 3 8.5 25.5 18.7
577 3 8.5 25.5 22.1
578 3 8.5 25.5 25.5
579 3 8.5 25.5 28.9
580 3 8.5 25.5 32.3
581 3 8.5 28.9 1.7
582 3 8.5 28.9 5.1
583 3 8.5 28.9 8.5
584 3 8.5 28.9 11.9
585 3 8.5 28.9 15.3
586 3 8.5 28.9 18.7
587 3 8.5 28.9 22.1
588 3 8.5 28.9 25.5
589 3 8.5 28.9 28.9
590 3 8.5 28.9 32.3
591 3 8.5 32.3 1.7
592 3 8.5 32.3 5.1
593 3 8.5 32.3 8.5
594 3 8.5 32.3 11.9
595 3 8.5 32.3 15.3
596 3 8.5 32.3 18.7
597 3 8.5 32.3 22.1
598 3 8.5 32.3 25.5
599 3 8.5 32.3 28.9
600 3 8.5 32.3 32.3
601 3 10.2 0 0
602 3 10.2 0 3.4
603 3 10.2 0 6.8
604 3 10.2 0 10.2
605 3 10.2 0 13.6
606 3 10.2 0 17
607 3 10.2 0 20.4
608 3 10.2 0 23.8
609 3 10.2 0 27.2
610 3 10.2 0 30.6
611 3 10.2 3.4 0
612 3 10.2 3.4 3.4
613 3 10.2 3.4 6.8
614 3 10.2 3.4 10.2
615 3 10.2 3.4 13.6
616 3 10.2 3.4 17
617 3 10.2 3.4 20.4
618 3 10.2 3.4 23.8
619 3 10.2 3.4 27.2
620 3 10.2 3.4 30.6
621 3 10.2 6.8 0
622 3 10.2 6.8 3.4
623 3 10.2 6.8 6.8
624 3 10.2 6.8 10.2
625 3 10.2 6.8 13.6
626 3 10.2 6.8 17
627 3 10.2 6.8 20.4
628 3 10.2 6.8 23.8
629 3 10.2 6.8 27.2
630 3 10.2 6.8 30.6
631 3 10.2 10.2 0
632 3 10.2 10.2 3.4
633 3 10.2 10.2 6.8
634 3 10.2 10.2 10.2
635 3 10.2 10.2 13.6
636 3 10.2 10.2 17
637 3 10.2 10.2 20.4
638 3 10.2 10.2 23.8
639 3 10.2 10.2 27.2
640 3 10.2 10.2 30.6
641 3 10.2 13.6 0
642 3 10.2 13.6 3.4
643 3 10.2 13.6 6.8
644 3 10.2 13.6 10.2
645 3 10.2 13.6 13.6
646 3 10.2 13.6 17
647 3 10.2 13.6 20.4
648 3 10.2 13.6 23.8
649 3 10.2 13.6 27.2
650 3 10.2 13.6 30.6
651 3 10.2 17 0
652 3 10.2 17 3.4
653 3 10.2 17 6.8
654 3 10.2 17 10.2
655 3 10.2 17 13.6
656 3 10.2 17 17
657 3 10.2 17 20.4
658 3 10.2 17 23.8
659 3 10.2 17 27.2
660 3 10.2 17 30.6
661 3 10.2 20.4 0
662 3 10.2 20.4 3.4
663 3 10.2 20.4 6.8
664 3 10.2 20.4 10.2
665 3 10.2 20.4 13.6
666 3 10.2 20.4 17
667 3 10.2 20.4 20.4
668 3 10.2 20.4 23.8
669 3 10.2 20.4 27.2
670 3 10.2 20.4 30.6
671 3 10.2 23.8 0
672 3 10.2 23.8 3.4
673 3 10.2 23.8 6.8
674 3 10.2 23.8 10.2
675 3 10.2 23.8 13.6
676 3 10.2 23.8 17
677 3 10.2 23.8 20.4
678 3 10.2 23.8 23.8
679 3 10.2 23.8 27.2
680 3 10.2 23.8 30.6
681 3 10.2 27.2 0
682 3 10.2 27.2 3.4
683 3 10.2 27.2 6.8
684 3 10.2 27.2 10.2
685 3 10.2 27.2 13.6
686 3 10.2 27.2 17
687 3 10.2 27.2 20.4
688 3 10.2 27.2 23.8
689 3 10.2 27.2 27.2
690 3 10.2 27.2 30.6
691 3 10.2 30.6 0
692 3 10.2 30.6 3.4
693 3 10.2 30.6 6.8
694 3 10.2 30.6 10.2
695 3 10.2 30.6 13.6
696 3 10.2 30.6 17
697 3 10.2 30.6 20.4
698 3 10.2 30.6 23.8
699 3 10.2 30.6 27.2
700 3 10.2 30.6 30.6
701 3 11.9 1.7 1.7
702 3 11.9 1.7 5.1
703 3 11.9 1.7 8.5
704 3 11.9 1.7 11.9
705 3 11.9 1.7 15.3
706 3 11.9 1.7 18.7
707 3 11.9 1.7 22.1
708 3 11.9 1.7 25.5
709 3 11.9 1.7 28.9
710 3 11.9 1.7 32.3
711 3 11.9 5.1 1.7
712 3 11.9 5.1 5.1
713 3 11.9 5.1 8.5
714 3 11.9 5.1 11.9
715 3 11.9 5.1 15.3
716 3 11.9 5.1 18.7
717 3 11.9 5.1 22.1
718 3 11.9 5.1 25.5
719 3 11.9 5.1 28.9
720 3 11.9 5.1 32.3
721 3 11.9 8.5 1.7
722 3 11.9 8.5 5.1
723 3 11.9 8.5 8.5
724 3 11.9 8.5 11.9
725 3 11.9 8.5 15.3
726 3 11.9 8.5 18.7
727 3 11.9 8.5 22.1
728 3 11.9 8.5 25.5
729 3 11.9 8.5 28.9
730 3 11.9 8.5 32.3
731 3 11.9 11.9 1.7
732 3 11.9 11.9 5.1
733 3 11.9 11.9 8.5
734 3 11.9 11.9 11.9
735 3 11.9 11.9 15.3
736 3 11.9 11.9 18.7
737 3 11.9 11.9 22.1
738 3 11.9 11.9 25.5
739 3 11.9 11.9 28.9
740 3 11.9 11.9 32.3
741 3 11.9 15.3 1.7
742 3 11.9 15.3 5.1
743 3 11.9 15.3 8.5
744 3 11.9 15.3 11.9
745 3 11.9 15.3 15.3
746 3 11.9 15.3 18.7
747 3 11.9 15.3 22.1
748 3 11.9 15.3 25.5
749 3 11.9 15.3 28.9
750 3 11.9 15.3 32.3
751 3 11.9 18.7 1.7
752 3 11.9 18.7 5.1
753 3 11.9 18.7 8.5
754 3 11.9 18.7 11.9
755 3 11.9 18.7 15.3
756 3 11.9 18.7 18.7
757 3 11.9 18.7 22.1
758 3 11.9 18.7 25.5
759 3 11.9 18.7 28.9
760 3 11.9 18.7 32.3
761 3 11.9 22.1 1.7
762 3 11.9 22.1 5.1
763 3 11.9 22.1 8.5
764 3 11.9 22.1 11.9
765 3 11.9 22.1 15.3
766 3 11.9 22.1 18.7
767 3 11.9 22.1 22.1
768 3 11.9 22.1 25.5
769 3 11.9 22.1 28.9
770 3 11.9 22.1 32.3
771 3 11.9 25.5 1.7
772 3 11.9 25.5 5.1
773 3 11.9 25.5 8.5
774 3 11.9 25.5 11.9
775 3 11.9 25.5 15.3
776 3 11.9 25.5 18.7
777 3 11.9 25.5 22.1
778 3 11.9 25.5 25.5
779 3 11.9 25.5 28.9
780 3 11.9 25.5 32.3
781 3 11.9 28.9 1.7
782 3 11.9 28.9 5.1
783 3 11.9 28.9 8.5
784 3 11.9 28.9 11.9
785 3 11.9 28.9 15.3
786 3 11.9 28.9 18.7
787 3 11.9 28.9 22.1
788 3 11.9 28.9 25.5
789 3 11.9 28.9 28.9
790 3 11.9 28.9 32.3
791 3 11.9 32.3 1.7
792 3 11.9 32.3 5.1
793 3 11.9 32.3 8.5
794 3 11.9 32.3 11.9
795 3 11.9 32.3 15.3
796 3 11.9 32.3 18.7
797 3 11.9 32.3 22.1
798 3 11.9 32.3 25.5
799 3 11.9 32.3 28.9
800 3 11.9 32.3 32.3
801 3 13.6 0 0
802 3 13.6 0 3.4
803 3 13.6 0 6.8
804 3 13.6 0 10.2
805 3 13.6 0 13.6
806 3 13.6 0 17
807 3 13.6 0 20.4
808 3 13.6 0 23.8
809 3 13.6 0 27.2
810 3 13.6 0 30.6
811 3 13.6 3.4 0
812 3 13.6 3.4 3.4
813 3 13.6 3.4 6.8
814 3 13.6 3.4 10.2
815 3 13.6 3.4 13.6
816 3 13.6 3.4 17
817 3 13.6 3.4 20.4
818 3 13.6 3.4 23.8
819 3 13.6 3.4 27.2
820 3 13.6 3.4 30.6
821 3 13.6 6.8 0
822 3 13.6 6.8 3.4
823 3 13.6 6.8 6.8
824 3 13.6 6.8 10.2
825 3 13.6 6.8 13.6
826 3 13.6 6.8 17
827 3 13.6 6.8 20.4
828 3 13.6 6.8 23.8
829 3 13.6 6.8 27.2
830 3 13.6 6.8 30.6
831 3 13.6 10.2 0
832 3 13.6 10.2 3.4
833 3 13.6 10.2 6.8
834 3 13.6 10.2 10.2
835 3 13.6 10.2 13.6
836 3 13.6 10.2 17
837 3 13.6 10.2 20.4
838 3 13.6 10.2 23.8
839 3 13.6 10.2 27.2
840 3 13.6 10.2 30.6
841 3 13.6 13.6 0
842 3 13.6 13.6 3.4
843 3 13.6 13.6 6.8
844 3 13.6 13.6 10.2
845 3 13.6 13.6 13.6
846 2 13.6 13.6 17
847 3 13.6 13.6 20.4
848 3 13.6 13.6 23.8
849 3 13.6 13.6 27.2
850 3 13.6 13.6 30.6
851 3 13.6 17 0
852 3 13.6 17 3.4
853 3 13.6 17 6.8
854 3 13.6 17 10.2
855 2 13.6 17 13.6
856 1 13.6 17 17
857 2 13.6 17 20.4
858 3 13.6 17 23.8
859 3 13.6 17 27.2
860 3 13.6 17 30.6
861 3 13.6 20.4 0
862 3 13.6 20.4 3.4
863 3 13.6 20.4 6.8
864 3 13.6 20.4 10.2
865 3 13.6 20.4 13.6
866 2 13.6 20.4 17
867 3 13.6 20.4 20.4
868 3 13.6 20.4 23.8
869 3 13.6 20.4 27.2
870 3 13.6 20.4 30.6
871 3 13.6 23.8 0
872 3 13.6 23.8 3.4
873 3 13.6 23.8 6.8
874 3 13.6 23.8 10.2
875 3 13.6 23.8 13.6
876 3 13.6 23.8 17
877 3 13.6 23.8 20.4
878 3 13.6 23.8 23.8
879 3 13.6 23.8 27.2
880 3 13.6 23.8 30.6
881 3 13.6 27.2 0
882 3 13.6 27.2 3.4
883 3 13.6 27.2 6.8
884 3 13.6 27.2 10.2
885 3 13.6 27.2 13.6
886 3 13.6 27.2 17
887 3 13.6 27.2 20.4
888 3 13.6 27.2 23.8
889 3 13.6 27.2 27.2
890 3 13.6 27.2 30.6
891 3 13.6 30.6 0
892 3 13.6 30.6 3.4
893 3 13.6 30.6 6.8
894 3 13.6 30.6 10.2
895 3 13.6 30.6 13.6
896 3 13.6 30.6 17
897 3 13.6 30.6 20.4
898 3 13.6 30.6 23.8
899 3 13.6 30.6 27.2
900 3 13.6 30.6 30.6
901 3 15.3 1.7 1.7
902 3 15.3 1.7 5.1
903 3 15.3 1.7 8.5
904 3 15.3 1.7 11.9
905 3 15.3 1.7 15.3
906 3 15.3 1.7 18.7
907 3 15.3 1.7 22.1
908 3 15.3 1.7 25.5
909 3 15.3 1.7 28.9
910 3 15.3 1.7 32.3
911 3 15.3 5.1 1.7
912 3 15.3 5.1 5.1
913 3 15.3 5.1 8.5
914 3 15.3 5.1 11.9
915 3 15.3 5.1 15.3
916 3 15.3 5.1 18.7
917 3 15.3 5.1 22.1
918 3 15.3 5.1 25.5
919 3 15.3 5.1 28.9
920 3 15.3 5.1 32.3
921 3 15.3 8.5 1.7
922 3 15.3 8.5 5.1
923 3 15.3 8.5 8.5
924 3 15.3 8.5 11.9
925 3 15.3 8.5 15.3
926 3 15.3 8.5 18.7
927 3 15.3 8.5 22.1
928 3 15.3 8.5 25.5
929 3 15.3 8.5 28.9
930 3 15.3 8.5 32.3
931 3 15.3 11.9 1.7
932 3 15.3 11.9 5.1
933 3 15.3 11.9 8.5
934 3 15.3 11.9 11.9
935 2 15.3 11.9 15.3
936 3 15.3 11.9 18.7
937 3 15.3 11.9 22.1
938 3 15.3 11.9 25.5
939 3 15.3 11.9 28.9
940 3 15.3 11.9 32.3
941 3 15.3 15.3 1.7
942 3 15.3 15.3 5.1
943 3 15.3 15.3 8.5
944 2 15.3 15.3 11.9
945 4 15.3 15.3 15.3
946 4 15.3 15.3 18.7
947 3 15.3 15.3 22.1
948 3 15.3 15.3 25.5
949 3 15.3 15.3 28.9
950 3 15.3 15.3 32.3
951 3 15.3 18.7 1.7
952 3 15.3 18.7 5.1
953 3 15.3 18.7 8.5
954 3 15.3 18.7 11.9
955 4 15.3 18.7 15.3
956 4 15.3 18.7 18.7
957 3 15.3 18.7 22.1
958 3 15.3 18.7 25.5
959 3 15.3 18.7 28.9
960 3 15.3 18.7 32.3
961 3 15.3 22.1 1.7
962 3 15.3 22.1 5.1
963 3 15.3 22.1 8.5
964 3 15.3 22.1 11.9
965 3 15.3 22.1 15.3
966 3 15.3 22.1 18.7
967 3 15.3 22.1 22.1
968 3 15.3 22.1 25.5
969 3 15.3 22.1 28.9
970 3 15.3 22.1 32.3
971 3 15.3 25.5 1.7
972 3 15.3 25.5 5.1
973 3 15.3 25.5 8.5
974 3 15.3 25.5 11.9
975 3 15.3 25.5 15.3
976 3 15.3 25.5 18.7
977 3 15.3 25.5 22.1
978 3 15.3 25.5 25.5
979 3 15.3 25.5 28.9
980 3 15.3 25.5 32.3
981 3 15.3 28.9 1.7
982 3 15.3 28.9 5.1
983 3 15.3 28.9 8.5
984 3 15.3 28.9 11.9
985 3 15.3 28.9 15.3
986 3 15.3 28.9 18.7
987 3 15.3 28.9 22.1
988 3 15.3 28.9 25.5
989 3 15.3 28.9 28.9
990 3 15.3 28.9 32.3
991 3 15.3 32.3 1.7
992 3 15.3 32.3 5.1
993 3 15.3 32.3 8.5
994 3 15.3 32.3 11.9
995 3 15.3 32.3 15.3
996 3 15.3 32.3 18.7
997 3 15.3 32.3 22.1
998 3 15.3 32.3 25.5
999 3 15.3 32.3 28.9
1000 3 15.3 32.3 32.3
1001 3 17 0 0
1002 3 17 0 3.4
1003 3 17 0 6.8
1004 3 17 0 10.2
1005 3 17 0 13.6
1006 3 17 0 17
1007 3 17 0 20.4
1008 3 17 0 23.8
1009 3 17 0 27.2
1010 3 17 0 30.6
1011 3 17 3.4 0
1012 3 17 3.4 3.4
1013 3 17 3.4 6.8
1014 3 17 3.4 10.2
1015 3 17 3.4 13.6
1016 3 17 3.4 17
1017 3 17 3.4 20.4
1018 3 17 3.4 23.8
1019 3 17 3.4 27.2
1020 3 17 3.4 30.6
1021 3 17 6.8 0
1022 3 17 6.8 3.4
1023 3 17 6.8 6.8
1024 3 17 6.8 10.2
1025 3 17 6.8 13.6
1026 3 17 6.8 17
1027 3 17 6.8 20.4
1028 3 17 6.8 23.8
1029 3 17 6.8 27.2
1030 3 17 6.8 30.6
1031 3 17 10.2 0
1032 3 17 10.2 3.4
1033 3 17 10.2 6.8
1034 3 17 10.2 10.2
1035 3 17 10.2 13.6
1036 3 17 10.2 17
1037 3 17 10.2 20.4
1038 3 17 10.2 23.8
1039 3 17 10.2 27.2
1040 3 17 10.2 30.6
1041 3 17 13.6 0
1042 3 17 13.6 3.4
1043 3 17 13.6 6.8
1044 3 17 13.6 10.2
1045 4 17 13.6 13.6
1046 4 17 13.6 17
1047 2 17 13.6 20.4
1048 3 17 13.6 23.8
1049 3 17 13.6 27.2
1050 3 17 13.6 30.6
1051 3 17 17 0
1052 3 17 17 3.4
1053 3 17 17 6.8
1054 3 17 17 10.2
1055 4 17 17 13.6
1056 5 17 17 17
1057 1 17 17 20.4
1058 3 17 17 23.8
1059 3 17 17 27.2
1060 3 17 17 30.6
1061 3 17 20.4 0
1062 3 17 20.4 3.4
1063 3 17 20.4 6.8
1064 3 17 20.4 10.2
1065 2 17 20.4 13.6
1066 1 17 20.4 17
1067 2 17 20.4 20.4
1068 3 17 20.4 23.8
1069 3 17 20.4 27.2
1070 3 17 20.4 30.6
1071 3 17 23.8 0
1072 3 17 23.8 3.4
1073 3 17 23.8 6.8
1074 3 17 23.8 10.2
1075 3 17 23.8 13.6
1076 3 17 23.8 17
1077 3 17 23.8 20.4
1078 3 17 23.8 23.8
1079 3 17 23.8 27.2
1080 3 17 23.8 30.6
1081 3 17 27.2 0
1082 3 17 27.2 3.4
1083 3 17 27.2 6.8
1084 3 17 27.2 10.2
1085 3 17 27.2 13.6
1086 3 17 27.2 17
1087 3 17 27.2 20.4
1088 3 17 27.2 23.8
1089 3 17 27.2 27.2
1090 3 17 27.2 30.6
1091 3 17 30.6 0
1092 3 17 30.6 3.4
1093 3 17 30.6 6.8
1094 3 17 30.6 10.2
1095 3 17 30.6 13.6
1096 3 17 30.6 17
1097 3 17 30.6 20.4
1098 3 17 30.6 23.8
1099 3 17 30.6 27.2
1100 3 17 30.6 30.6
1101 3 18.7 1.7 1.7
1102 3 18.7 1.7 5.1
1103 3 18.7 1.7 8.5
1104 3 18.7 1.7 11.9
1105 3 18.7 1.7 15.3
1106 3 18.7 1.7 18.7
1107 3 18.7 1.7 22.1
1108 3 18.7 1.7 25.5
1109 3 18.7 1.7 28.9
1110 3 18.7 1.7 32.3
1111 3 18.7 5.1 1.7
1112 3 18.7 5.1 5.1
1113 3 18.7 5.1 8.5
1114 3 18.7 5.1 11.9
1115 3 18.7 5.1 15.3
1116 3 18.7 5.1 18.7
1117 3 18.7 5.1 22.1
1118 3 18.7 5.1 25.5
1119 3 18.7 5.1 28.9
1120 3 18.7 5.1 32.3
1121 3 18.7 8.5 1.7
1122 3 18.7 8.5 5.1
1123 3 18.7 8.5 8.5
1124 3 18.7 8.5 11.9
1125 3 18.7 8.5 15.3
1126 3 18.7 8.5 18.7
1127 3 18.7 8.5 22.1
1128 3 18.7 8.5 25.5
1129 3 18.7 8.5 28.9
1130 3 18.7 8.5 32.3
1131 3 18.7 11.9 1.7
1132 3 18.7 11.9 5.1
1133 3 18.7 11.9 8.5
1134 2 18.7 11.9 11.9
1135 1 18.7 11.9 15.3
1136 2 18.7 11.9 18.7
1137 3 18.7 11.9 22.1
1138 3 18.7 11.9 25.5
1139 3 18.7 11.9 28.9
1140 3 18.7 11.9 32.3
1141 3 18.7 15.3 1.7
1142 3 18.7 15.3 5.1
1143 3 18.7 15.3 8.5
1144 1 18.7 15.3 11.9
1145 5 18.7 15.3 15.3
1146 4 18.7 15.3 18.7
1147 3 18.7 15.3 22.1
1148 3 18.7 15.3 25.5
1149 3 18.7 15.3 28.9
1150 3 18.7 15.3 32.3
1151 3 18.7 18.7 1.7
1152 3 18.7 18.7 5.1
1153 3 18.7 18.7 8.5
1154 2 18.7 18.7 11.9
1155 4 18.7 18.7 15.3
1156 4 18.7 18.7 18.7
1157 3 18.7 18.7 22.1
1158 3 18.7 18.7 25.5
1159 3 18.7 18.7 28.9
1160 3 18.7 18.7 32.3
1161 3 18.7 22.1 1.7
1162 3 18.7 22.1 5.1
1163 3 18.7 22.1 8.5
1164 3 18.7 22.1 11.9
1165 3 18.7 22.1 15.3
1166 3 18.7 22.1 18.7
1167 3 18.7 22.1 22.1
1168 3 18.7 22.1 25.5
1169 3 18.7 22.1 28.9
1170 3 18.7 22.1 32.3
1171 3 18.7 25.5 1.7
1172 3 18.7 25.5 5.1
1173 3 18.7 25.5 8.5
1174 3 18.7 25.5 11.9
1175 3 18.7 25.5 15.3
1176 3 18.7 25.5 18.7
1177 3 18.7 25.5 22.1
1178 3 18.7 25.5 25.5
1179 3 18.7 25.5 28.9
1180 3 18.7 25.5 32.3
1181 3 18.7 28.9 1.7
1182 3 18.7 28.9 5.1
1183 3 18.7 28.9 8.5
1184 3 18.7 28.9 11.9
1185 3 18.7 28.9 15.3
1186 3 18.7 28.9 18.7
1187 3 18.7 28.9 22.1
1188 3 18.7 28.9 25.5
1189 3 18.7 28.9 28.9
1190 3 18.7 28.9 32.3
1191 3 18.7 32.3 1.7
1192 3 18.7 32.3 5.1
1193 3 18.7 32.3 8.5
1194 3 18.7 32.3 11.9
1195 3 18.7 32.3 15.3
1196 3 18.7 32.3 18.7
1197 3 18.7 32.3 22.1
1198 3 18.7 32.3 25.5
1199 3 18.7 32.3 28.9
1200 3 18.7 32.3 32.3
1201 3 20.4 0 0
1202 3 20.4 0 3.4
1203 3 20.4 0 6.8
1204 3 20.4 0 10.2
1205 3 20.4 0 13.6
1206 3 20.4 0 17
1207 3 20.4 0 20.4
1208 3 20.4 0 23.8
1209 3 20.4 0 27.2
1210 3 20.4 0 30.6
1211 3 20.4 3.4 0
1212 3 20.4 3.4 3.4
1213 3 20.4 3.4 6.8
1214 3 20.4 3.4 10.2
1215 3 20.4 3.4 13.6
1216 3 20.4 3.4 17
1217 3 20.4 3.4 20.4
1218 3 20.4 3.4 23.8
1219 3 20.4 3.4 27.2
1220 3 20.4 3.4 30.6
1221 3 20.4 6.8 0
1222 3 20.4 6.8 3.4
1223 3 20.4 6.8 6.8
1224 3 20.4 6.8 10.2
1225 3 20.4 6.8 13.6
1226 3 20.4 6.8 17
1227 3 20.4 6.8 20.4
1228 3 20.4 6.8 23.8
1229 3 20.4 6.8 27.2
1230 3 20.4 6.8 30.6
1231 3 20.4 10.2 0
1232 3 20.4 10.2 3.4
1233 3 20.4 10.2 6.8
1234 3 20.4 10.2 10.2
1235 3 20.4 10.2 13.6
1236 3 20.4 10.2 17
1237 3 20.4 10.2 20.4
1238 3 20.4 10.2 23.8
1239 3 20.4 10.2 27.2
1240 3 20.4 10.2 30.6
1241 3 20.4 13.6 0
1242 3 20.4 13.6 3.4
1243 3 20.4 13.6 6.8
1244 3 20.4 13.6 10.2
1245 4 20.4 13.6 13.6
1246 4 20.4 13.6 17
1247 3 20.4 13.6 20.4
1248 3 20.4 13.6 23.8
1249 3 20.4 13.6 27.2
1250 3 20.4 13.6 30.6
1251 3 20.4 17 0
1252 3 20.4 17 3.4
1253 3 20.4 17 6.8
1254 3 20.4 17 10.2
1255 4 20.4 17 13.6
1256 4 20.4 17 17
1257 2 20.4 17 20.4
1258 3 20.4 17 23.8
1259 3 20.4 17 27.2
1260 3 20.4 17 30.6
1261 3 20.4 20.4 0
1262 3 20.4 20.4 3.4
1263 3 20.4 20.4 6.8
1264 3 20.4 20.4 10.2
1265 3 20.4 20.4 13.6
1266 2 20.4 20.4 17
1267 3 20.4 20.4 20.4
1268 3 20.4 20.4 23.8
1269 3 20.4 20.4 27.2
1270 3 20.4 20.4 30.6
1271 3 20.4 23.8 0
1272 3 20.4 23.8 3.4
1273 3 20.4 23.8 6.8
1274 3 20.4 23.8 10.2
1275 3 20.4 23.8 13.6
1276 3 20.4 23.8 17
1277 3 20.4 23.8 20.4
1278 3 20.4 23.8 23.8
1279 3 20.4 23.8 27.2
1280 3 20.4 23.8 30.6
1281 3 20.4 27.2 0
1282 3 20.4 27.2 3.4
1283 3 20.4 27.2 6.8
1284 3 20.4 27.2 10.2
1285 3 20.4 27.2 13.6
1286 3 20.4 27.2 17
1287 3 20.4 27.2 20.4
1288 3 20.4 27.2 23.8
1289 3 20.4 27.2 27.2
1290 3 20.4 27.2 30.6
1291 3 20.4 30.6 0
1292 3 20.4 30.6 3.4
1293 3 20.4 30.6 6.8
1294 3 20.4 30.6 10.2
1295 3 20.4 30.6 13.6
1296 3 20.4 30.6 17
1297 3 20.4 30.6 20.4
1298 3 20.4 30.6 23.8
1299 3 20.4 30.6 27.2
1300 3 20.4 30.6 30.6
1301 3 22.1 1.7 1.7
1302 3 22.1 1.7 5.1
1303 3 22.1 1.7 8.5
1304 3 22.1 1.7 11.9
1305 3 22.1 1.7 15.3
1306 3 22.1 1.7 18.7
1307 3 22.1 1.7 22.1
1308 3 22.1 1.7 25.5
1309 3 22.1 1.7 28.9
1310 3 22.1 1.7 32.3
1311 3 22.1 5.1 1.7
1312 3 22.1 5.1 5.1
1313 3 22.1 5.1 8.5
1314 3 22.1 5.1 11.9
1315 3 22.1 5.1 15.3
1316 3 22.1 5.1 18.7
1317 3 22.1 5.1 22.1
1318 3 22.1 5.1 25.5
1319 3 22.1 5.1 28.9
1320 3 22.1 5.1 32.3
1321 3 22.1 8.5 1.7
1322 3 22.1 8.5 5.1
1323 3 22.1 8.5 8.5
1324 3 22.1 8.5 11.9
1325 3 22.1 8.5 15.3
1326 3 22.1 8.5 18.7
1327 3 22.1 8.5 22.1
1328 3 22.1 8.5 25.5
1329 3 22.1 8.5 28.9
1330 3 22.1 8.5 32.3
1331 3 22.1 11.9 1.7
1332 3 22.1 11.9 5.1
1333 3 22.1 11.9 8.5
1334 3 22.1 11.9 11.9
1335 2 22.1 11.9 15.3
1336 3 22.1 11.9 18.7
1337 3 22.1 11.9 22.1
1338 3 22.1 11.9 25.5
1339 3 22.1 11.9 28.9
1340 3 22.1 11.9 32.3
1341 3 22.1 15.3 1.7
1342 3 22.1 15.3 5.1
1343 3 22.1 15.3 8.5
1344 2 22.1 15.3 11.9
1345 1 22.1 15.3 15.3
1346 2 22.1 15.3 18.7
1347 3 22.1 15.3 22.1
1348 3 22.1 15.3 25.5
1349 3 22.1 15.3 28.9
1350 3 22.1 15.3 32.3
1351 3 22.1 18.7 1.7
1352 3 22.1 18.7 5.1
1353 3 22.1 18.7 8.5
1354 3 22.1 18.7 11.9
1355 2 22.1 18.7 15.3
1356 3 22.1 18.7 18.7
1357 3 22.1 18.7 22.1
1358 3 22.1 18.7 25.5
1359 3 22.1 18.7 28.9
1360 3 22.1 18.7 32.3
1361 3 22.1 22.1 1.7
1362 3 22.1 22.1 5.1
1363 3 22.1 22.1 8.5
1364 3 22.1 22.1 11.9
1365 3 22.1 22.1 15.3
1366 3 22.1 22.1 18.7
1367 3 22.1 22.1 22.1
1368 3 22.1 22.1 25.5
1369 3 22.1 22.1 28.9
1370 3 22.1 22.1 32.3
1371 3 22.1 25.5 1.7
1372 3 22.1 25.5 5.1
1373 3 22.1 25.5 8.5
1374 3 22.1 25.5 11.9
1375 3 22.1 25.5 15.3
1376 3 22.1 25.5 18.7
1377 3 22.1 25.5 22.1
1378 3 22.1 25.5 25.5
1379 3 22.1 25.5 28.9
1380 3 22.1 25.5 32.3
1381 3 22.1 28.9 1.7
1382 3 22.1 28.9 5.1
1383 3 22.1 28.9 8.5
1384 3 22.1 28.9 11.9
1385 3 22.1 28.9 15.3
1386 3 22.1 28.9 18.7
1387 3 22.1 28.9 22.1
1388 3 22.1 28.9 25.5
1389 3 22.1 28.9 28.9
1390 3 22.1 28.9 32.3
1391 3 22.1 32.3 1.7
1392 3 22.1 32.3 5.1
1393 3 22.1 32.3 8.5
1394 3 22.1 32.3 11.9
1395 3 22.1 32.3 15.3
1396 3 22.1 32.3 18.7
1397 3 22.1 32.3 22.1
1398 3 22.1 32.3 25.5
1399 3 22.1 32.3 28.9
1400 3 22.1 32.3 32.3
1401 3 23.8 0 0
1402 3 23.8 0 3.4
1403 3 23.8 0 6.8
1404 3 23.8 0 10.2
1405 3 23.8 0 13.6
1406 3 23.8 0 17
1407 3 23.8 0 20.4
1408 3 23.8 0 23.8
1409 3 23.8 0 27.2
1410 3 23.8 0 30.6
1411 3 23.8 3.4 0
1412 3 23.8 3.4 3.4
1413 3 23.8 3.4 6.8
1414 3 23.8 3.4 10.2
1415 3 23.8 3.4 13.6
1416 3 23.8 3.4 17
1417 3 23.8 3.4 20.4
1418 3 23.8 3.4 23.8
1419 3 23.8 3.4 27.2
1420 3 23.8 3.4 30.6
1421 3 23.8 6.8 0
1422 3 23.8 6.8 3.4
1423 3 23.8 6.8 6.8
1424 3 23.8 6.8 10.2
1425 3 23.8 6.8 13.6
1426 3 23.8 6.8 17
1427 3 23.8 6.8 20.4
1428 3 23.8 6.8 23.8
1429 3 23.8 6.8 27.2
1430 3 23.8 6.8 30.6
1431 3 23.8 10.2 0
1432 3 23.8 10.2 3.4
1433 3 23.8 10.2 6.8
1434 3 23.8 10.2 10.2
1435 3 23.8 10.2 13.6
1436 3 23.8 10.2 17
1437 3 23.8 10.2 20.4
1438 3 23.8 10.2 23.8
1439 3 23.8 10.2 27.2
1440 3 23.8 10.2 30.6
1441 3 23.8 13.6 0
1442 3 23.8 13.6 3.4
1443 3 23.8 13.6 6.8
1444 3 23.8 13.6 10.2
1445 3 23.8 13.6 13.6
1446 3 23.8 13.6 17
1447 3 23.8 13.6 20.4
1448 3 23.8 13.6 23.8
1449 3 23.8 13.6 27.2
1450 3 23.8 13.6 30.6
1451 3 23.8 17 0
1452 3 23.8 17 3.4
1453 3 23.8 17 6.8
1454 3 23.8 17 10.2
1455 3 23.8 17 13.6
1456 3 23.8 17 17
1457 3 23.8 17 20.4
1458 3 23.8 17 23.8
1459 3 23.8 17 27.2
1460 3 23.8 17 30.6
1461 3 23.8 20.4 0
1462 3 23.8 20.4 3.4
1463 3 23.8 20.4 6.8
1464 3 23.8 20.4 10.2
1465 3 23.8 20.4 13.6
1466 3 23.8 20.4 17
1467 3 23.8 20.4 20.4
1468 3 23.8 20.4 23.8
1469 3 23.8 20.4 27.2
1470 3 23.8 20.4 30.6
1471 3 23.8 23.8 0
1472 3 23.8 23.8 3.4
1473 3 23.8 23.8 6.8
1474 3 23.8 23.8 10.2
1475 3 23.8 23.8 13.6
1476 3 23.8 23.8 17
1477 3 23.8 23.8 20.4
1478 3 23.8 23.8 23.8
1479 3 23.8 23.8 27.2
1480 3 23.8 23.8 30.6
1481 3 23.8 27.2 0
1482 3 23.8 27.2 3.4
1483 3 23.8 27.2 6.8
1484 3 23.8 27.2 10.2
1485 3 23.8 27.2 13.6
1486 3 23.8 27.2 17
1487 3 23.8 27.2 20.4
1488 3 23.8 27.2 23.8
1489 3 23.8 27.2 27.2
1490 3 23.8 27.2 30.6
1491 3 23.8 30.6 0
1492 3 23.8 30.6 3.4
1493 3 23.8 30.6 6.8
1494 3 23.8 30.6 10.2
1495 3 23.8 30.6 13.6
1496 3 23.8 30.6 17
1497 3 23.8 30.6 20.4
1498 3 23.8 30.6 23.8
1499 3 23.8 30.6 27.2
1500 3 23.8 30.6 30.6
1501 3 25.5 1.7 1.7
1502 3 25.5 1.7 5.1
1503 3 25.5 1.7 8.5
1504 3 25.5 1.7 11.9
1505 3 25.5 1.7 15.3
1506 3 25.5 1.7 18.7
1507 3 25.5 1.7 22.1
1508 3 25.5 1.7 25.5
1509 3 25.5 1.7 28.9
1510 3 25.5 1.7 32.3
1511 3 25.5 5.1 1.7
1512 3 25.5 5.1 5.1
1513 3 25.5 5.1 8.5
1514 3 25.5 5.1 11.9
1515 3 25.5 5.1 15.3
1516 3 25.5 5.1 18.7
1517 3 25.5 5.1 22.1
1518 3 25.5 5.1 25.5
1519 3 25.5 5.1 28.9
1520 3 25.5 5.1 32.3
1521 3 25.5 8.5 1.7
1522 3 25.5 8.5 5.1
1523 3 25.5 8.5 8.5
1524 3 25.5 8.5 11.9